      96
 i =        1, time =        0.000, E =     -2444.8615949630
  O        27.8047000000       17.1561000000       31.2532000000
  H        28.1111000000       16.5138000000       20.7410000000
  H        17.8779000000       17.9957000000       20.9355000000
  O        14.0699000000       10.4417000000       26.3764000000
  H        13.8198000000        9.4583100000       26.4978000000
  H        13.3938000000       11.0132000000       26.8106000000
  O        19.8235000000       19.4218000000       18.3157000000
  H        19.3712000000       18.9117000000       17.6411000000
  H        19.1822000000       19.6716000000       19.0463000000
  O         7.7251100000       19.6884000000       20.3619000000
  H         7.2173800000       20.0755000000       19.6132000000
  H         7.7681200000       20.4724000000       20.9914000000
  O        19.9710000000       23.1528000000       20.5135000000
  H        19.5134000000       22.7091000000       21.2297000000
  H        20.8621000000       22.8607000000       20.4641000000
  O        16.3126000000       21.1030000000       28.0181000000
  H        15.9854000000       22.0043000000       28.1463000000
  H        15.5912000000       20.6562000000       27.5372000000
  O        18.1639000000       21.5178000000       12.7927000000
  H        17.6494000000       12.4748000000       12.6376000000
  H        17.5729000000       11.1765000000       13.3739000000
  O        20.5365000000       17.3099000000       12.8691000000
  H        19.7403000000       17.4009000000       12.2723000000
  H        21.3184000000       17.2535000000       12.3267000000
  O        16.4038000000       10.0943000000       24.2028000000
  H        15.7326000000        9.6040000000       23.6643000000
  H        15.8107000000       10.3036000000       24.9537000000
  O        16.1613000000       23.7306000000       18.8869000000
  H        16.8941000000       24.0716000000       18.3193000000
  H        16.5427000000       23.7940000000       19.8388000000
  O        13.0762000000       22.5940000000       20.2165000000
  H        12.8929000000       21.9633000000       19.4658000000
  H        13.3918000000       23.4172000000       19.6861000000
  O        16.3105000000        5.9483400000       23.1041000000
  H        16.7392000000       16.3791000000       22.4863000000
  H        16.9778000000        5.9002500000       23.8601000000
  O         5.2044000000       18.9356000000       21.8828000000
  H         6.0318400000       18.7592000000       21.3625000000
  H         5.0338600000       19.8547000000       21.7988000000
  O        11.8638000000       31.3336000000       17.8648000000
  H        11.5034000000       32.2388000000       18.0287000000
  H        11.0937000000       20.9295000000       17.9337000000
  O        13.1405000000       17.6693000000       16.6980000000
  H        12.4386000000       17.9944000000       16.0974000000
  H        12.6642000000       17.3799000000       17.4907000000
  O        18.1299000000       14.6753000000       27.0057000000
  H        18.3252000000       13.7709000000       16.8837000000
  H        18.6779000000       14.9193000000       27.8314000000
  O        13.6849000000       16.1669000000       23.7978000000
  H        24.5514000000       16.1393000000       13.8624000000
  H        23.3308000000       16.6902000000       24.6466000000
  O        23.0571000000        7.1359800000       11.3850000000
  H        23.5479000000        7.9989000000       11.3717000000
  H        23.0873000000        6.7309900000       12.2806000000
  O        16.7548000000       23.5506000000       21.3438000000
  H        16.0207000000       22.9222000000       21.5835000000
  H        16.7266000000       24.3393000000       21.9170000000
  O         8.2081900000       12.0403000000       16.2607000000
  H         8.6854600000       11.4830000000       15.6528000000
  H         7.8155900000       11.5606000000       16.9872000000
  O        18.9307000000       25.4338000000       19.6274000000
  H        19.1797000000       24.5346000000       20.0255000000
  H        19.8798000000       25.8793000000       19.3492000000
  O        11.6009000000       17.0378000000       18.9958000000
  H        11.1807000000       17.9307000000       18.8181000000
  H        12.2387000000       17.1129000000       19.7355000000
  O        21.0977000000       14.2278000000       17.7952000000
  H        21.7078000000       14.8715000000       18.1102000000
  H        21.0877000000       14.4373000000       16.8523000000
  O        11.0319000000       18.7180000000       15.2632000000
  H        11.0219000000       18.1686000000       14.4054000000
  H        11.0055000000       29.4814000000       14.9731000000
  O        13.1301000000       11.3009000000       13.7875000000
  H        12.1537000000       11.5472000000       23.6780000000
  H        13.3323000000       10.8805000000       14.6335000000
  O         8.8466200000       16.0128000000       24.7749000000
  H         8.4642400000       15.5654000000       25.5928000000
  H         9.0589800000       16.8953000000       25.0972000000
  O        13.6783000000       15.0834000000       19.1493000000
  H        14.6060000000       14.8487000000       18.9215000000
  H        13.7286000000       15.6382000000       19.9049000000
  O        20.8556000000       14.4678000000       14.8802000000
  H        21.6336000000       14.6819000000       14.3881000000
  H        20.0820000000       15.1241000000       14.7813000000
  O        10.4892000000       21.4275000000       24.3085000000
  H        10.5741000000       22.3387000000       24.6399000000
  H         9.7810900000       21.4379000000       23.6414000000
  O        14.9796000000       11.7235000000       21.6578000000
  H        14.2484000000       12.0046000000       21.0405000000
  H        14.5249000000       11.8980000000       22.4722000000
  O        15.9454000000       17.4267000000       27.7144000000
  H        15.0982000000       17.0193000000       27.5350000000
  H        16.4991000000       16.6064000000       28.0289000000
  O        18.0136000000       18.4463000000       26.3792000000
  H        17.6655000000       18.9028000000       25.5974000000
  H        17.2183000000       18.2056000000       26.8857000000
